/*--------------------------------*- C++ -*----------------------------------*\
| =========                 |                                                 |
| \\      /  F ield         | OpenFOAM: The Open Source CFD Toolbox           |
|  \\    /   O peration     | Version:  2312                                  |
|   \\  /    A nd           | Website:  www.openfoam.com                      |
|    \\/     M anipulation  |                                                 |
\*---------------------------------------------------------------------------*/
FoamFile
{
    version     2.0;
    format      ascii;
    arch        "LSB;label=32;scalar=64";
    class       volScalarField;
    location    "36.8";
    object      corr;
}
// * * * * * * * * * * * * * * * * * * * * * * * * * * * * * * * * * * * * * //

dimensions      [0 0 0 0 0 0 0];

internalField   nonuniform List<scalar> 
250000
(
1.0294e-186
3.72495e-186
8.83785e-186
1.96685e-185
4.31457e-185
9.41725e-185
2.04883e-184
4.44473e-184
9.61618e-184
2.07508e-183
4.46668e-183
9.5909e-183
2.0541e-182
4.38744e-182
9.34474e-182
1.98462e-181
4.20306e-181
8.87757e-181
1.87034e-180
3.93075e-180
8.24013e-180
1.72281e-179
3.59185e-179
7.46697e-179
1.54785e-178
3.19986e-178
6.59818e-178
1.35723e-177
2.78496e-177
5.69991e-177
1.16339e-176
2.36776e-176
4.80511e-176
9.72443e-176
1.96289e-175
3.95236e-175
7.93907e-175
1.59073e-174
3.17881e-174
6.33441e-174
1.25861e-173
2.49368e-173
4.92737e-173
9.71139e-173
1.90933e-172
3.74451e-172
7.32432e-172
1.42864e-171
2.77848e-171
5.38778e-171
1.04177e-170
2.00885e-170
3.86363e-170
7.41174e-170
1.41804e-169
2.70542e-169
5.14623e-169
9.75922e-169
1.84509e-168
3.47804e-168
6.53762e-168
1.22546e-167
2.29075e-167
4.26975e-167
7.93448e-167
1.46982e-166
2.71404e-166
4.99546e-166
9.16601e-166
1.67673e-165
3.05813e-165
5.56086e-165
1.00807e-164
1.82159e-164
3.28073e-164
5.88871e-164
1.05343e-163
1.87818e-163
3.33778e-163
5.91263e-163
1.04403e-162
1.83753e-162
3.22332e-162
5.63475e-162
9.81564e-162
1.70379e-161
2.94696e-161
5.0794e-161
8.7249e-161
1.49358e-160
2.54815e-160
4.33232e-160
7.33986e-160
1.23903e-159
2.08388e-159
3.49175e-159
5.82906e-159
9.69514e-159
1.60672e-158
2.65321e-158
4.36577e-158
7.15801e-158
1.16934e-157
1.90314e-157
3.08567e-157
4.98372e-157
8.01843e-157
1.28521e-156
2.05237e-156
3.26571e-156
5.17843e-156
8.18393e-156
1.28919e-155
2.02445e-155
3.16957e-155
4.94878e-155
7.70831e-155
1.19843e-154
1.86118e-154
2.89002e-154
4.49237e-154
7.00051e-154
1.0954e-153
1.72418e-153
2.73513e-153
4.38102e-153
7.09774e-153
1.16468e-152
1.9373e-152
3.26717e-152
5.58324e-152
9.65574e-152
1.68694e-151
2.97121e-151
5.26444e-151
9.36401e-151
1.66926e-150
2.97867e-150
5.3173e-150
9.49757e-150
1.6999e-149
3.05924e-149
5.57298e-149
1.04134e-148
2.05061e-148
4.48696e-148
1.18348e-147
4.01191e-147
1.70842e-146
8.38511e-146
4.40097e-145
2.36952e-144
1.28362e-143
6.93622e-143
3.72401e-142
1.98282e-141
1.04599e-140
5.46405e-140
2.82545e-139
1.44593e-138
7.3215e-138
3.66755e-137
1.81715e-136
8.90411e-136
4.31404e-135
2.06647e-134
9.7842e-134
4.57867e-133
2.11721e-132
9.6732e-132
4.36556e-131
1.94607e-130
8.56623e-130
3.72333e-129
1.59746e-128
6.76549e-128
2.82723e-127
1.16586e-126
4.74189e-126
1.90251e-125
7.52551e-125
2.93531e-124
1.12825e-123
4.27454e-123
1.59511e-122
5.86458e-122
2.12256e-121
7.56523e-121
2.65276e-120
9.15559e-120
3.10668e-119
1.03698e-118
3.40049e-118
1.09623e-117
3.46896e-117
1.0784e-116
3.28779e-116
9.83941e-116
2.885e-115
8.2964e-115
2.33491e-114
6.43888e-114
1.7357e-113
4.57988e-113
1.17981e-112
2.97173e-112
7.29809e-112
1.75045e-111
4.08781e-111
9.31212e-111
2.06249e-110
4.45049e-110
9.32348e-110
1.90042e-109
3.75514e-109
7.20937e-109
1.33968e-108
2.41511e-108
4.20729e-108
7.09882e-108
1.15554e-107
1.81869e-107
2.75736e-107
4.03573e-107
5.68397e-107
7.72005e-107
1.00883e-106
1.27122e-106
1.54288e-106
1.80787e-106
2.04517e-106
2.23849e-106
2.37197e-106
2.43663e-106
2.42746e-106
2.34509e-106
2.19614e-106
1.99033e-106
1.7443e-106
1.47432e-106
1.20136e-106
9.41055e-107
7.09093e-107
5.12621e-107
3.5622e-107
2.37376e-107
1.52145e-107
9.35702e-108
5.54312e-108
3.15432e-108
1.73199e-108
9.14583e-109
4.66776e-109
2.29338e-109
1.09066e-109
4.99791e-110
2.21987e-110
9.5094e-111
3.95362e-111
1.58701e-111
6.19161e-112
2.3353e-112
8.57382e-113
3.04776e-113
1.05647e-113
3.55327e-114
1.16783e-114
3.73316e-115
1.1695e-115
3.57765e-116
1.07719e-116
3.18454e-117
9.33657e-118
2.71969e-118
7.98751e-119
2.38891e-119
7.47393e-120
2.50279e-120
9.21196e-121
3.7361e-121
1.65186e-121
7.73052e-122
3.73415e-122
1.8208e-122
8.86909e-123
4.2786e-123
2.03693e-123
9.53647e-124
4.39108e-124
1.98743e-124
8.84041e-125
3.86489e-125
1.66119e-125
7.02894e-126
2.926e-126
1.20027e-126
4.84777e-127
1.93273e-127
7.59309e-128
2.94814e-128
1.12879e-128
4.27781e-129
1.59997e-129
5.92968e-130
2.17004e-130
7.87948e-131
2.82726e-131
1.00752e-131
3.54912e-132
1.24303e-132
4.30654e-133
1.48467e-133
5.06369e-134
1.72012e-134
5.78476e-135
1.93896e-135
6.43362e-136
2.12929e-136
6.98109e-137
2.2843e-137
7.40276e-138
2.39585e-138
7.68506e-139
2.46305e-139
7.82122e-140
2.48308e-140
7.8183e-141
2.46432e-141
7.72133e-142
2.44409e-142
7.90081e-143
2.76997e-143
1.15534e-143
6.36339e-144
4.49221e-144
3.62909e-144
3.06347e-144
2.59213e-144
2.16402e-144
1.77225e-144
1.42093e-144
1.11341e-144
8.53068e-145
6.38865e-145
4.67887e-145
3.34617e-145
2.34028e-145
1.60009e-145
1.07085e-145
7.00087e-146
4.47787e-146
2.79968e-146
1.71455e-146
1.02642e-146
6.01513e-147
3.44654e-147
1.93586e-147
1.06452e-147
5.73878e-148
3.02972e-148
1.57049e-148
7.98996e-149
3.99467e-149
1.9618e-149
9.48447e-150
4.51647e-150
2.12059e-150
9.82244e-151
4.49554e-151
2.03624e-151
9.1344e-152
4.06511e-152
1.79679e-152
7.90886e-153
3.46898e-153
1.52069e-153
6.66909e-154
2.93666e-154
1.29929e-154
5.79538e-155
2.60738e-155
1.18649e-155
5.4579e-156
2.541e-156
1.19542e-156
5.6822e-157
2.72206e-157
1.31266e-157
6.35679e-158
3.08825e-158
1.50209e-158
7.31005e-159
3.55472e-159
1.72715e-159
8.37635e-160
4.05539e-160
1.95893e-160
9.44567e-161
4.54442e-161
2.1829e-161
1.04654e-161
5.01161e-162
2.39609e-162
1.1444e-162
5.45799e-163
2.60122e-163
1.23822e-163
5.89122e-164
2.80019e-164
1.33071e-164
6.31853e-165
2.99933e-165
1.4225e-165
6.74542e-166
3.19606e-166
1.51419e-166
7.16854e-167
3.3941e-167
1.60593e-167
7.59798e-168
3.59195e-168
1.6981e-168
8.02182e-169
3.78966e-169
1.78908e-169
8.44801e-170
3.98655e-170
1.88129e-170
8.87115e-171
4.18356e-171
1.97147e-171
9.2917e-172
4.37625e-172
2.06178e-172
9.70743e-173
4.57107e-173
2.15076e-173
1.01215e-173
4.75966e-174
2.23873e-174
1.05226e-174
4.94784e-175
2.32502e-175
1.09275e-175
5.13184e-176
2.41064e-176
1.13153e-176
5.31283e-177
2.49274e-177
1.17011e-177
5.489e-178
2.57556e-178
1.20753e-178
5.66321e-179
2.65397e-179
1.24418e-179
5.82843e-180
2.7318e-180
1.27954e-180
5.99517e-181
2.80664e-181
1.31442e-181
6.151e-182
2.87962e-182
1.3471e-182
6.30546e-183
2.94941e-183
1.38013e-183
6.45254e-184
3.01808e-184
1.41054e-184
6.59543e-185
3.08151e-185
1.44066e-185
6.7306e-186
3.14581e-186
1.46902e-186
6.86336e-187
3.20399e-187
1.49648e-187
6.98394e-188
3.26161e-188
1.52212e-188
7.10677e-189
3.31514e-189
1.54727e-189
7.21551e-190
3.36677e-190
1.56964e-190
7.32333e-191
3.41423e-191
1.59259e-191
7.42179e-192
3.46066e-192
1.6121e-192
7.51052e-193
3.48705e-193
1.59963e-193
6.85966e-194
1.90595e-194
3.31048e-186
1.19466e-185
2.83042e-185
6.29413e-185
1.37988e-184
3.00986e-184
6.54394e-184
1.41873e-183
3.06774e-183
6.6169e-183
1.42375e-182
3.05583e-182
6.54144e-182
1.39634e-181
2.97203e-181
6.30768e-181
1.33507e-180
2.81856e-180
5.93591e-180
1.24703e-179
2.613e-179
5.46001e-179
1.13759e-178
2.36329e-178
4.89594e-178
1.01164e-177
2.08525e-177
4.28787e-177
8.79507e-177
1.79915e-176
3.66995e-176
7.46428e-176
1.51386e-175
3.06216e-175
6.17865e-175
1.24372e-174
2.49743e-174
5.00191e-174
9.99011e-174
1.98951e-173
3.95062e-173
7.82326e-173
1.5452e-172
3.04453e-172
5.98402e-172
1.17316e-171
2.29366e-171
4.4714e-171
8.69103e-171
1.68438e-170
3.25542e-170
6.27535e-170
1.20659e-169
2.31395e-169
4.42544e-169
8.43907e-169
1.60439e-168
3.04089e-168
5.74631e-168
1.08277e-167
2.03461e-167
3.81276e-167
7.12483e-167
1.32748e-166
2.46568e-166
4.56519e-166
8.42533e-166
1.55007e-165
2.8431e-165
5.19927e-165
9.47989e-165
1.72327e-164
3.12273e-164
5.6403e-164
1.01534e-163
1.82162e-163
3.25726e-163
5.80535e-163
1.03136e-162
1.82646e-162
3.22414e-162
5.6727e-162
9.94694e-162
1.73812e-161
3.02643e-161
5.25107e-161
9.0791e-161
1.56439e-160
2.68641e-160
4.5976e-160
7.84163e-160
1.33282e-159
2.25726e-159
3.80898e-159
6.40361e-159
1.07259e-158
1.78994e-158
2.97626e-158
4.93116e-158
8.1412e-158
1.3393e-157
2.19533e-157
3.58524e-157
5.83315e-157
9.45424e-157
1.52647e-156
2.45525e-156
3.93449e-156
6.28215e-156
9.99555e-156
1.58499e-155
2.50505e-155
3.94651e-155
6.19842e-155
9.70739e-155
1.51641e-154
2.36385e-154
3.67962e-154
5.72452e-154
8.91057e-154
1.38955e-153
2.17431e-153
3.41977e-153
5.41646e-153
8.65603e-153
1.39834e-152
2.28711e-152
3.79167e-152
6.37476e-152
1.08663e-151
1.87603e-151
3.27527e-151
5.77072e-151
1.02384e-150
1.82518e-150
3.26287e-150
5.84056e-150
1.04568e-149
1.87164e-149
3.35055e-149
6.00967e-149
1.08413e-148
1.98234e-148
3.73395e-148
7.49708e-148
1.71322e-147
4.87102e-147
1.79995e-146
8.17827e-146
4.16259e-145
2.22412e-144
1.20781e-143
6.57111e-143
3.55905e-142
1.91353e-141
1.01985e-140
5.38415e-140
2.81441e-139
1.45622e-138
7.45637e-138
3.77766e-137
1.8933e-136
9.38571e-136
4.60119e-135
2.23044e-134
1.06886e-133
5.06336e-133
2.37042e-132
1.09664e-131
5.01218e-131
2.26312e-130
1.00917e-129
4.44432e-129
1.93226e-128
8.2942e-128
3.51352e-127
1.46898e-126
6.05868e-126
2.46545e-125
9.893e-125
3.91523e-124
1.52724e-123
5.87334e-123
2.22524e-122
8.30837e-122
3.0545e-121
1.10615e-120
3.9421e-120
1.38316e-119
4.77286e-119
1.62061e-118
5.408e-118
1.77469e-117
5.71913e-117
1.81121e-116
5.62809e-116
1.71734e-115
5.13684e-115
1.50758e-114
4.33267e-114
1.22062e-113
3.36365e-113
9.07739e-113
2.39325e-112
6.17272e-112
1.55338e-111
3.81995e-111
9.15287e-111
2.14057e-110
4.87083e-110
1.08051e-109
2.32872e-109
4.88673e-109
9.94771e-109
1.96914e-108
3.77526e-108
7.02846e-108
1.26523e-107
2.20834e-107
3.72059e-107
6.06789e-107
9.53629e-107
1.44846e-106
2.11707e-106
2.98668e-106
4.05152e-106
5.30185e-106
6.67399e-106
8.10902e-106
9.49459e-106
1.07486e-105
1.17592e-105
1.24651e-105
1.28026e-105
1.2755e-105
1.23237e-105
1.15375e-105
1.04608e-105
9.16136e-106
7.74948e-106
6.30748e-106
4.94657e-106
3.7212e-106
2.6943e-106
1.86831e-106
1.24735e-106
7.97442e-107
4.91505e-107
2.90316e-107
1.65606e-107
9.06381e-108
4.79863e-108
2.44059e-108
1.20237e-108
5.69735e-109
2.61793e-109
1.15843e-109
4.97587e-110
2.06092e-110
8.2942e-111
3.22364e-111
1.21882e-111
4.45787e-112
1.58815e-112
5.48456e-113
1.84815e-113
6.05133e-114
1.93737e-114
6.04591e-115
1.85116e-115
5.54946e-116
1.6403e-116
4.78128e-117
1.38781e-117
4.02948e-118
1.18865e-118
3.61519e-119
1.16466e-119
4.05915e-120
1.55603e-120
6.52151e-121
2.93221e-121
1.37593e-121
6.58957e-122
3.16977e-122
1.5171e-122
7.18352e-123
3.35262e-123
1.53965e-123
6.95297e-124
3.08849e-124
1.3488e-124
5.79225e-125
2.4471e-125
1.01815e-125
4.17229e-126
1.68455e-126
6.70519e-127
2.6338e-127
1.02128e-127
3.91005e-128
1.47911e-128
5.53244e-129
2.04702e-129
7.49262e-130
2.71509e-130
9.74474e-131
3.46584e-131
1.22137e-131
4.26825e-132
1.47944e-132
5.08903e-133
1.73673e-133
5.88568e-134
1.98064e-134
6.62254e-135
2.19916e-135
7.26023e-136
2.38229e-136
7.77463e-137
2.52198e-137
8.14091e-138
2.61389e-138
8.35407e-139
2.65579e-139
8.40878e-140
2.65067e-140
8.33089e-141
2.61411e-141
8.25673e-142
2.67716e-142
9.40563e-143
3.96484e-143
2.20659e-143
1.57134e-143
1.27391e-143
1.07653e-143
9.10991e-144
7.60377e-144
6.22587e-144
4.98792e-144
3.90682e-144
2.99149e-144
2.23979e-144
1.63892e-144
1.17186e-144
8.19045e-145
5.5997e-145
3.74448e-145
2.44822e-145
1.56509e-145
9.78802e-146
5.99028e-146
3.58683e-146
2.10117e-146
1.20452e-146
6.76217e-147
3.7188e-147
2.00415e-147
1.05856e-147
5.48488e-148
2.78986e-148
1.39436e-148
6.84887e-149
3.30955e-149
1.57491e-149
7.3909e-150
3.42212e-150
1.56516e-150
7.08026e-151
3.17361e-151
1.41082e-151
6.2292e-152
2.73643e-152
1.19868e-152
5.24432e-153
2.29613e-153
1.00834e-153
4.45268e-154
1.9808e-154
8.89247e-155
4.03469e-155
1.8521e-155
8.60178e-156
4.03984e-156
1.91646e-156
9.17043e-157
4.41705e-157
2.13762e-157
1.03757e-157
5.04482e-158
2.45376e-158
1.19295e-158
5.79297e-159
2.80901e-159
1.35939e-159
6.56504e-160
3.1636e-160
1.52162e-160
7.3045e-161
3.50073e-161
1.67512e-161
8.00581e-162
3.82106e-162
1.82162e-162
8.67437e-163
4.12734e-163
1.96214e-163
9.32213e-164
4.42614e-164
2.10071e-164
9.9642e-165
4.72373e-165
2.23802e-165
1.05996e-165
5.01764e-166
2.37449e-166
1.12325e-166
5.31263e-167
2.5116e-167
1.18693e-167
5.60642e-168
2.64753e-168
1.24974e-168
5.89787e-169
2.78252e-169
1.31262e-169
6.18973e-170
2.91785e-170
1.37488e-170
6.47714e-171
3.05031e-171
1.43622e-171
6.76063e-172
3.18221e-172
1.49734e-172
7.04346e-173
3.31194e-173
1.55708e-173
7.31803e-174
3.43883e-174
1.6156e-174
7.59007e-175
3.56467e-175
1.67372e-175
7.85582e-176
3.68677e-176
1.72968e-176
8.11392e-177
3.80553e-177
1.78485e-177
8.36874e-178
3.92302e-178
1.83838e-178
8.61411e-179
4.03513e-179
1.88999e-179
8.85102e-180
4.14516e-180
1.94073e-180
9.08453e-181
4.25114e-181
1.98919e-181
9.30522e-182
4.35253e-182
2.03562e-182
9.5208e-183
4.45177e-183
2.0812e-183
9.72682e-184
4.54573e-184
2.12383e-184
9.92222e-185
4.63495e-185
2.16527e-185
1.01126e-185
4.72223e-186
2.20451e-186
1.02911e-186
4.80283e-187
2.24136e-187
1.04588e-187
4.88075e-188
2.2771e-188
1.06222e-188
4.95377e-189
2.31019e-189
1.07708e-189
5.0215e-190
2.34089e-190
1.09136e-190
5.08683e-191
2.37065e-191
1.10453e-191
5.14557e-192
2.39526e-192
1.11203e-192
5.09534e-193
2.18444e-193
6.05862e-194
6.36404e-186
2.2913e-185
5.42207e-185
1.20468e-184
2.63883e-184
5.75099e-184
1.24931e-183
2.7064e-183
5.84812e-183
1.26063e-182
2.7109e-182
5.81461e-182
1.24375e-181
2.65268e-181
5.64124e-181
1.19631e-180
2.53034e-180
5.33884e-180
1.12376e-179
2.35942e-179
4.94048e-179
1.03152e-178
2.1474e-178
4.45758e-178
9.22844e-178
1.90579e-177
3.92642e-177
8.06979e-177
1.65427e-176
3.38166e-176
6.89275e-176
1.40085e-175
2.83927e-175
5.74002e-175
1.15769e-174
2.32936e-174
4.67522e-174
9.35807e-174
1.8678e-173
3.71706e-173
7.37644e-173
1.45994e-172
2.88243e-172
5.67716e-172
1.11542e-171
2.1857e-171
4.27087e-171
8.32058e-171
1.61629e-170
3.13078e-170
6.04842e-170
1.16552e-169
2.24028e-169
4.29463e-169
8.20971e-169
1.56467e-168
2.97302e-168
5.63184e-168
1.06378e-167
2.00372e-167
3.76405e-167
7.05135e-167
1.3172e-166
2.45307e-166
4.55415e-166
8.42764e-166
1.55467e-165
2.85911e-165
5.2425e-165
9.58438e-165
1.74706e-164
3.17477e-164
5.75088e-164
1.03827e-163
1.86827e-163
3.35048e-163
5.98905e-163
1.0671e-162
1.89535e-162
3.35573e-162
5.92226e-162
1.04167e-161
1.82596e-161
3.1895e-161
5.55175e-161
9.62963e-161
1.66456e-160
2.86754e-160
4.92342e-160
8.4246e-160
1.43664e-159
2.44122e-159
4.1334e-159
6.97279e-159
1.17195e-158
1.96248e-158
3.2744e-158
5.44375e-158
9.01851e-158
1.48877e-157
2.44892e-157
4.01357e-157
6.55356e-157
1.06604e-156
1.72751e-156
2.78879e-156
4.48536e-156
7.18782e-156
1.14782e-155
1.82671e-155
2.8976e-155
4.58161e-155
7.22228e-155
1.13523e-154
1.77985e-154
2.78455e-154
4.34992e-154
6.7908e-154
1.06059e-153
1.65929e-153
2.60452e-153
4.10878e-153
6.52701e-153
1.04614e-152
1.69503e-152
2.78099e-152
4.62583e-152
7.80555e-152
1.33588e-151
2.31669e-151
4.0645e-151
7.19958e-151
1.28466e-150
2.30384e-150
4.14382e-150
7.46252e-150
1.34376e-149
2.41726e-149
4.3432e-149
7.80029e-149
1.40326e-148
2.54029e-148
4.67385e-148
8.93488e-148
1.8612e-147
4.60077e-147
1.47316e-146
6.10067e-146
2.98287e-145
1.57637e-144
8.57468e-144
4.69702e-143
2.56702e-142
1.39407e-141
7.5087e-141
4.00748e-140
2.1182e-139
1.10845e-138
5.7411e-138
2.94265e-137
1.49227e-136
7.48641e-136
3.71464e-135
1.82281e-134
8.84381e-134
4.24216e-133
2.01125e-132
9.42462e-132
4.36362e-131
1.99626e-130
9.02037e-130
4.0261e-129
1.77432e-128
7.72137e-128
3.31655e-127
1.40623e-126
5.88289e-126
2.42861e-125
9.88813e-125
3.97147e-124
1.57251e-123
6.13978e-123
2.3622e-122
8.95832e-122
3.34597e-121
1.23133e-120
4.46043e-120
1.59121e-119
5.58427e-119
1.92898e-118
6.55068e-118
2.18834e-117
7.18165e-117
2.31698e-116
7.33749e-116
2.28271e-115
6.96453e-115
2.08577e-114
6.11998e-114
1.76112e-113
4.95985e-113
1.36864e-112
3.69185e-112
9.74742e-112
2.51265e-111
6.3326e-111
1.55619e-110
3.73453e-110
8.7268e-110
1.98897e-109
4.40808e-109
9.51596e-109
1.99483e-108
4.06754e-108
8.04272e-108
1.54449e-107
2.8721e-107
5.17842e-107
9.02803e-107
1.52328e-106
2.48157e-106
3.90517e-106
5.92561e-106
8.67051e-106
1.22215e-105
1.65934e-105
2.16996e-105
2.73326e-105
3.31934e-105
3.88802e-105
4.40018e-105
4.81474e-105
5.103e-105
5.24116e-105
5.22162e-105
5.04419e-105
4.72297e-105
4.28073e-105
3.74996e-105
3.17034e-105
2.58139e-105
2.02293e-105
1.52254e-105
1.10135e-105
7.64146e-106
5.09597e-106
3.26003e-106
2.00672e-106
1.18616e-106
6.75639e-107
3.70076e-107
1.95614e-107
9.95731e-108
4.89695e-108
2.32242e-108
1.06514e-108
4.71749e-109
2.02225e-109
8.38335e-110
3.36667e-110
1.30964e-110
4.94036e-111
1.80842e-111
6.42708e-112
2.22111e-112
7.46509e-113
2.44547e-113
7.80688e-114
2.43666e-114
7.43563e-115
2.22764e-115
6.55522e-116
1.90618e-116
5.49129e-117
1.58121e-117
4.58261e-118
1.35828e-118
4.18508e-119
1.37235e-119
4.87474e-120
1.89333e-120
7.96459e-121
3.55426e-121
1.64373e-121
7.72581e-122
3.64189e-122
1.70659e-122
7.91299e-123
3.61745e-123
1.62826e-123
7.21275e-124
3.14451e-124
1.34855e-124
5.68918e-125
2.36379e-125
9.67659e-126
3.90411e-126
1.55208e-126
6.09018e-127
2.35896e-127
9.02649e-128
3.41008e-128
1.27432e-128
4.70914e-129
1.72281e-129
6.23395e-130
2.23552e-130
7.93975e-131
2.79668e-131
9.75837e-132
3.37977e-132
1.1608e-132
3.95974e-133
1.33977e-133
4.50535e-134
1.50396e-134
4.99229e-135
1.64539e-135
5.39554e-136
1.75783e-136
5.70018e-137
1.83688e-137
5.89447e-138
1.88058e-138
5.97663e-139
1.88907e-139
5.95195e-140
1.86743e-140
5.85951e-141
1.84886e-141
6.00493e-142
2.11827e-142
9.02856e-143
5.08965e-143
3.65901e-143
2.97883e-143
2.52117e-143
2.13456e-143
1.78178e-143
1.45861e-143
1.16831e-143
9.15017e-144
7.00424e-144
5.24282e-144
3.83546e-144
2.74253e-144
1.91595e-144
1.30964e-144
8.75575e-145
5.72576e-145
3.65832e-145
2.28767e-145
1.39975e-145
8.38329e-146
4.90788e-146
2.81345e-146
1.57904e-146
8.6848e-147
4.67717e-147
2.47034e-147
1.27952e-147
6.50724e-148
3.24944e-148
1.59563e-148
7.70569e-149
3.66436e-149
1.71738e-149
7.9442e-150
3.6287e-150
1.63873e-150
7.32872e-151
3.25073e-151
1.43159e-151
6.26809e-152
2.73517e-152
1.19174e-152
5.19472e-153
2.2694e-153
9.96591e-154
4.40819e-154
1.96783e-154
8.87631e-155
4.05198e-155
1.87236e-155
8.75462e-156
4.13701e-156
1.97305e-156
9.4791e-157
4.57777e-157
2.21817e-157
1.0769e-157
5.23218e-158
2.54124e-158
1.23301e-158
5.97363e-159
2.88896e-159
1.39416e-159
6.71329e-160
3.22612e-160
1.54754e-160
7.41063e-161
3.54324e-161
1.69185e-161
8.06879e-162
3.84336e-162
1.82859e-162
8.6921e-163
4.12875e-163
1.95981e-163
9.29726e-164
4.40842e-164
2.08938e-164
9.89669e-165
4.68488e-165
2.21672e-165
1.04851e-165
4.95761e-166
2.34331e-166
1.10732e-166
5.23116e-167
2.47017e-167
1.16586e-167
5.50067e-168
2.59459e-168
1.2235e-168
5.76799e-169
2.71871e-169
1.28116e-169
6.035e-170
2.84159e-170
1.33758e-170
6.29477e-171
2.9617e-171
1.39318e-171
6.55256e-172
3.08129e-172
1.44846e-172
6.80619e-173
3.1974e-173
1.50176e-173
7.05218e-174
3.31104e-174
1.55439e-174
7.29597e-175
3.42353e-175
1.60584e-175
7.5308e-176
3.53101e-176
1.65535e-176
7.75908e-177
3.63662e-177
1.7042e-177
7.98411e-178
3.73922e-178
1.75088e-178
8.19701e-179
3.83709e-179
1.79592e-179
8.40524e-180
3.93327e-180
1.84015e-180
8.60615e-181
4.02435e-181
1.88153e-181
8.79602e-182
4.11155e-182
1.92182e-182
8.98182e-183
4.19683e-183
1.9604e-183
9.15601e-184
4.27564e-184
1.99647e-184
9.32127e-185
4.35195e-185
2.03161e-185
9.48223e-186
4.42439e-186
2.06416e-186
9.62873e-187
4.49127e-187
2.09472e-187
9.76977e-188
4.55609e-188
2.12434e-188
9.90226e-189
4.61529e-189
2.15079e-189
1.00226e-189
4.67006e-190
2.17608e-190
1.01385e-190
4.72286e-191
2.19943e-191
1.02407e-191
4.76489e-192
2.21113e-192
1.01265e-192
4.33908e-193
1.20325e-193
1.08325e-185
3.8938e-185
9.20367e-185
2.04282e-184
4.47014e-184
9.73242e-184
2.11215e-183
4.57179e-183
9.87132e-183
2.1264e-182
4.56907e-182
9.79187e-182
2.09243e-181
4.45836e-181
9.4719e-181
2.00698e-180
4.24183e-180
8.94419e-180
1.88132e-179
3.94702e-179
8.25735e-179
1.72245e-178
3.58237e-178
7.43033e-178
1.53718e-177
3.17268e-177
6.53266e-177
1.34179e-176
2.74847e-176
5.61383e-176
1.14325e-175
2.32173e-175
4.70254e-175
9.50215e-175
1.91551e-174
3.85227e-174
7.72692e-174
1.54558e-173
3.08244e-173
6.13e-173
1.2157e-172
2.40501e-172
4.74626e-172
9.34459e-172
1.83506e-171
3.59387e-171
7.01769e-171
1.36633e-170
2.6525e-170
5.13562e-170
9.91759e-170
1.91052e-169
3.67084e-169
7.0341e-169
1.34391e-168
2.55992e-168
4.86125e-168
9.20464e-168
1.73793e-167
3.27265e-167
6.14585e-167
1.15099e-166
2.14917e-166
4.00074e-166
7.42363e-166
1.37319e-165
2.53212e-165
4.6554e-165
8.53391e-165
1.55987e-164
2.84256e-164
5.16405e-164
9.35073e-164
1.6876e-163
3.0355e-163
5.44222e-163
9.72553e-163
1.73259e-162
3.07682e-162
5.44679e-162
9.61048e-162
1.69003e-161
2.96162e-161
5.17195e-161
9.00014e-161
1.56084e-160
2.69766e-160
4.64698e-160
7.97794e-160
1.36505e-159
2.3275e-159
3.95453e-159
6.69439e-159
1.12913e-158
1.89745e-158
3.17712e-158
5.30069e-158
8.81268e-158
1.45998e-157
2.41022e-157
3.96456e-157
6.49748e-157
1.06087e-156
1.72561e-156
2.79624e-156
4.51441e-156
7.26181e-156
1.16405e-155
1.85961e-155
2.96114e-155
4.70028e-155
7.43862e-155
1.17392e-154
1.84803e-154
2.90322e-154
4.55451e-154
7.14093e-154
1.12023e-153
1.76066e-153
2.77692e-153
4.40302e-153
7.03238e-153
1.1337e-152
1.84842e-152
3.05307e-152
5.11484e-152
8.69605e-152
1.50004e-151
2.62253e-151
4.63916e-151
8.286e-151
1.49081e-150
2.69556e-150
4.88757e-150
8.87082e-150
1.60923e-149
2.91458e-149
5.26737e-149
9.50018e-149
1.71172e-148
3.08904e-148
5.61696e-148
1.0433e-147
2.04311e-147
4.51307e-147
1.24637e-146
4.57129e-146
2.10001e-145
1.08674e-144
5.89949e-144
3.24964e-143
1.7913e-142
9.82468e-142
5.34778e-141
2.88546e-140
1.54225e-139
8.16273e-139
4.27684e-138
2.2179e-137
1.13813e-136
5.77861e-136
2.90226e-135
1.44175e-134
7.08246e-134
3.44022e-133
1.65191e-132
7.84083e-132
3.67783e-131
1.70477e-130
7.80633e-130
3.53135e-129
1.57758e-128
6.96015e-128
3.03144e-127
1.30353e-126
5.53136e-126
2.31656e-125
9.57032e-125
3.90086e-124
1.56779e-123
6.21452e-123
2.42789e-122
9.3514e-122
3.54827e-121
1.32679e-120
4.88489e-120
1.77156e-119
6.32227e-119
2.22138e-118
7.67565e-118
2.60976e-117
8.72017e-117
2.86533e-116
9.24552e-116
2.93169e-115
9.12093e-115
2.78653e-114
8.34476e-114
2.45192e-113
7.05466e-113
1.98972e-112
5.48904e-112
1.48292e-111
3.91381e-111
1.0105e-110
2.54551e-110
6.26583e-110
1.50277e-109
3.51773e-109
8.01182e-109
1.77879e-108
3.83696e-108
8.05797e-108
1.64167e-107
3.25196e-107
6.23947e-107
1.16236e-106
2.09392e-106
3.6569e-106
6.16506e-106
1.00602e-105
1.58194e-105
2.40409e-105
3.51542e-105
4.96199e-105
6.7334e-105
8.81577e-105
1.10998e-104
1.34925e-104
1.57999e-104
1.78932e-104
1.95768e-104
2.07574e-104
2.13203e-104
2.12447e-104
2.05273e-104
1.92194e-104
1.74271e-104
1.52618e-104
1.2911e-104
1.0506e-104
8.24017e-105
6.19571e-105
4.48653e-105
3.1085e-105
2.07562e-105
1.32543e-105
8.17035e-106
4.819e-106
2.74916e-106
1.5021e-106
7.95265e-107
4.03704e-107
1.98866e-107
9.40355e-108
4.31977e-108
1.90724e-108
8.18833e-109
3.3835e-109
1.36068e-109
5.27548e-110
1.99254e-110
7.26883e-111
2.58593e-111
8.90575e-112
2.99547e-112
9.77749e-113
3.12238e-113
9.70858e-114
2.96222e-114
8.83588e-115
2.59672e-115
7.50878e-116
2.15552e-116
6.14761e-117
1.76216e-117
5.11044e-118
1.52634e-118
4.75514e-119
1.58022e-119
5.66787e-120
2.20789e-120
9.21165e-121
4.04882e-121
1.83505e-121
8.44192e-122
3.88967e-122
1.78271e-122
8.08624e-123
3.6201e-123
1.59717e-123
6.93979e-124
2.96902e-124
1.25002e-124
5.18505e-125
2.11877e-125
8.53646e-126
3.38884e-126
1.3281e-126
5.13664e-127
1.96318e-127
7.40662e-128
2.76454e-128
1.02017e-128
3.72792e-129
1.3471e-129
4.825e-130
1.71126e-130
6.02082e-131
2.09793e-131
7.25723e-132
2.48905e-132
8.4811e-133
2.86558e-133
9.62449e-134
3.20838e-134
1.0638e-134
3.50133e-135
1.14673e-135
3.7309e-136
1.2085e-136
3.88909e-137
1.24646e-137
3.97143e-138
1.26079e-138
3.9798e-139
1.25243e-139
3.92473e-140
1.23053e-140
3.88117e-141
1.26253e-141
4.48055e-142
1.93512e-142
1.10848e-142
8.05783e-143
6.59393e-143
5.59242e-143
4.7384e-143
3.95597e-143
3.2387e-143
2.59458e-143
2.03202e-143
1.55512e-143
1.16398e-143
8.51744e-144
6.09e-144
4.25272e-144
2.90628e-144
1.94359e-144
1.27093e-144
8.11553e-145
5.07246e-145
3.10413e-145
1.85896e-145
1.08759e-145
6.23007e-146
3.49619e-146
1.92253e-146
1.03469e-146
5.45989e-147
2.82683e-147
1.43698e-147
7.17017e-148
3.51677e-148
1.69692e-148
8.06171e-149
3.77358e-149
1.74242e-149
7.94543e-150
3.58088e-150
1.59762e-150
7.06423e-151
3.10081e-151
1.3524e-151
5.87563e-152
2.54667e-152
1.1039e-152
4.79251e-153
2.09071e-153
9.18125e-154
4.06932e-154
1.82228e-154
8.26155e-155
3.79249e-155
1.76316e-155
8.28975e-156
3.93729e-156
1.88479e-156
9.07731e-157
4.38817e-157
2.1266e-157
1.03152e-157
5.00388e-158
2.42501e-158
1.17375e-158
5.67044e-159
2.73406e-159
1.31521e-159
6.31472e-160
3.02591e-160
1.44768e-160
6.9146e-161
3.29862e-161
1.57145e-161
7.47805e-162
3.55399e-162
1.68771e-162
8.0075e-163
3.79725e-163
1.79944e-163
8.5243e-164
4.03565e-164
1.90975e-164
9.03055e-165
4.2689e-165
2.01699e-165
9.52813e-166
4.49901e-166
2.12415e-166
1.00244e-166
4.72947e-167
2.22993e-167
1.0512e-167
4.95335e-168
2.33384e-168
1.09919e-168
5.17688e-169
2.43722e-169
1.14716e-169
5.39628e-170
2.53809e-170
1.19332e-170
5.61033e-171
2.63671e-171
1.23923e-171
5.82218e-172
2.73491e-172
1.28396e-172
6.02732e-173
2.82844e-173
1.32729e-173
6.2264e-174
2.92107e-174
1.36995e-174
6.42398e-175
3.01069e-175
1.41093e-175
6.61003e-176
3.09681e-176
1.45039e-176
6.79366e-177
3.18117e-177
1.48944e-177
6.96992e-178
3.26155e-178
1.52576e-178
7.13794e-179
3.3383e-179
1.56148e-179
7.30164e-180
3.41405e-180
1.59548e-180
7.45619e-181
3.48349e-181
1.6276e-181
7.60236e-182
3.55157e-182
1.6587e-182
7.74629e-183
3.61573e-183
1.68776e-183
7.87596e-184
3.6757e-184
1.71494e-184
8.0027e-185
3.7334e-185
1.74164e-185
8.12072e-186
3.78662e-186
1.76518e-186
8.22959e-187
3.83568e-187
1.7881e-187
8.33348e-188
3.88379e-188
1.80913e-188
8.42776e-189
3.92497e-189
1.82819e-189
8.51303e-190
3.96494e-190
1.84619e-190
8.59641e-191
4.0007e-191
1.86185e-191
8.65773e-192
4.01587e-192
1.83803e-192
7.87265e-193
2.18151e-193
1.76222e-185
6.32488e-185
1.49333e-184
3.31079e-184
7.23697e-184
1.57391e-183
3.41258e-183
7.38006e-183
1.5923e-182
3.42717e-182
7.35781e-182
1.5752e-181
3.36258e-181
7.15683e-181
1.51908e-180
3.21596e-180
6.79237e-180
1.43116e-179
3.00808e-179
6.30509e-179
1.3178e-178
2.74604e-178
5.7062e-178
1.18257e-177
2.445e-177
5.0432e-177
1.0378e-176
2.12996e-176
4.35938e-176
8.89584e-176
1.81016e-175
3.67328e-175
7.43602e-175
1.50176e-174
3.02599e-174
6.08185e-174
1.21911e-173
2.43658e-173
4.85592e-173
9.65005e-173
1.91286e-172
3.78245e-172
7.46213e-172
1.46849e-171
2.88239e-171
5.64131e-171
1.10089e-170
2.14203e-170
4.15645e-170
8.04409e-170
1.55301e-169
2.99068e-169
5.74435e-169
1.10018e-168
2.10093e-168
3.99963e-168
7.59193e-168
1.43692e-167
2.7124e-167
5.1063e-167
9.58739e-167
1.7949e-166
3.35034e-166
6.23388e-166
1.1563e-165
2.13801e-165
3.94153e-165
7.24501e-165
1.32794e-164
2.42679e-164
4.42159e-164
8.03021e-164
1.45367e-163
2.62267e-163
4.7164e-163
8.45402e-163
1.51066e-162
2.69095e-162
4.77858e-162
8.45833e-162
1.49226e-161
2.62366e-161
4.59702e-161
8.02638e-161
1.39663e-160
2.4219e-160
4.18599e-160
7.21085e-160
1.23803e-159
2.11827e-159
3.61176e-159
6.136e-159
1.03868e-158
1.75177e-158
2.9438e-158
4.92922e-158
8.22487e-158
1.36757e-157
2.26599e-157
3.74122e-157
6.1546e-157
1.00872e-156
1.64711e-156
2.67939e-156
4.34259e-156
7.01266e-156
1.12851e-155
1.80993e-155
2.89351e-155
4.61148e-155
7.32814e-155
1.16136e-154
1.83614e-154
2.89737e-154
4.56622e-154
7.19347e-154
1.13412e-153
1.79193e-153
2.84228e-153
4.53428e-153
7.29034e-153
1.18384e-152
1.94544e-152
3.24067e-152
5.47827e-152
9.402e-152
1.63757e-151
2.89106e-151
5.1642e-151
9.31264e-151
1.69131e-150
3.08611e-150
5.64539e-150
1.0334e-149
1.89e-149
3.44946e-149
6.27773e-149
1.13898e-148
2.06083e-148
3.7237e-148
6.74251e-148
1.2335e-147
2.32516e-147
4.7315e-147
1.13929e-146
3.60218e-146
1.50332e-145
7.47745e-145
4.02061e-144
2.22074e-143
1.23331e-142
6.82798e-142
3.75491e-141
2.04784e-140
1.10668e-139
5.92355e-139
3.13929e-138
1.64695e-137
8.55131e-137
4.39366e-136
2.23341e-135
1.12308e-134
5.58548e-134
2.74712e-133
1.33584e-132
6.42201e-132
3.05144e-131
1.43299e-130
6.64896e-130
3.04816e-129
1.38021e-128
6.17297e-128
2.72593e-127
1.18861e-126
5.11539e-126
2.17311e-125
9.10827e-125
3.76711e-124
1.53659e-123
6.18266e-123
2.45236e-122
9.59174e-122
3.69661e-121
1.40424e-120
5.25356e-120
1.93646e-119
7.02593e-119
2.51035e-118
8.82355e-118
3.05253e-117
1.03817e-116
3.47321e-116
1.14147e-115
3.68787e-115
1.16951e-114
3.64334e-114
1.11307e-113
3.33785e-113
9.80646e-113
2.82552e-112
7.96741e-112
2.20121e-111
5.94475e-111
1.57138e-110
4.05522e-110
1.02315e-109
2.51701e-109
6.04657e-109
1.41437e-108
3.22672e-108
7.15788e-108
1.54666e-107
3.24494e-107
6.62256e-107
1.31042e-106
2.51872e-106
4.68651e-106
8.45741e-106
1.47512e-105
2.49121e-105
4.05959e-105
6.39441e-105
9.70396e-105
1.42122e-104
2.00324e-104
2.72219e-104
3.55939e-104
4.48669e-104
5.44769e-104
6.38459e-104
7.22422e-104
7.90774e-104
8.37999e-104
8.60844e-104
8.57589e-104
8.2845e-104
7.75734e-104
7.0295e-104
6.1589e-104
5.20436e-104
4.23876e-104
3.31892e-104
2.499e-104
1.80545e-104
1.25335e-104
8.34498e-105
5.34188e-105
3.28187e-105
1.94123e-105
1.1033e-105
6.04739e-106
3.18883e-106
1.62422e-106
7.96728e-107
3.78044e-107
1.72917e-107